Program Version,EnergyPlus, Version 9.3.0-60e3a1f2d5 (No OpenGL), YMD=2022.07.11 18:46
1,5,Environment Title[],Latitude[deg],Longitude[deg],Time Zone[],Elevation[m]
2,8,Day of Simulation[],Month[],Day of Month[],DST Indicator[1=yes 0=no],Hour[],StartMinute[],EndMinute[],DayType
3,5,Cumulative Day of Simulation[],Month[],Day of Month[],DST Indicator[1=yes 0=no],DayType  ! When Daily Report Variables Requested
4,2,Cumulative Days of Simulation[],Month[]  ! When Monthly Report Variables Requested
5,1,Cumulative Days of Simulation[] ! When Run Period Report Variables Requested
6,1,Calendar Year of Simulation[] ! When Annual Report Variables Requested
7,1,Environment,Site Outdoor Air Drybulb Temperature [C] !TimeStep
1151,1,EMS,Cooling Controlled Load [] !TimeStep
1152,1,EMS,Heating Controlled Load [] !TimeStep
1153,1,EMS,Cooling Schedule Temperature [] !TimeStep
1154,1,EMS,Heating Schedule Temperature [] !TimeStep
1155,1,EMS,Cooling Setpoint Temperature [] !TimeStep
1156,1,EMS,Heating Setpoint Temperature [] !TimeStep
1157,1,EMS,Cooling Current Temperature [] !TimeStep
1158,1,EMS,Heating Current Temperature [] !TimeStep
1159,1,EMS,Cooling Power State [] !TimeStep
1160,1,EMS,Heating Power State [] !TimeStep
1165,1,EMS,Heating Volume [] !TimeStep
1166,1,EMS,Cooling Volume [] !TimeStep
1167,1,EMS,Indoor Air Temperature [] !TimeStep
1168,1,EMS,Occupant Count [] !TimeStep
2520,1,Whole Building,Facility Total HVAC Electric Demand Power [W] !TimeStep
2521,1,Whole Building,Facility Total Electric Demand Power [W] !TimeStep
2522,1,Facility,Facility Thermal Comfort ASHRAE 55 Simple Model Summer or Winter Clothes Not Comfortable Time [hr] !TimeStep
End of Data Dictionary
1,RUNPERIOD 1,  32.13,-110.95,  -7.00, 777.00
2,1, 7, 1, 1, 1, 0.00, 5.00,Monday
7,30.5
1151,1258.415030476354
1152,0.0
1153,80.6
1154,60.8
1155,80.6
1156,60.8
1157,78.67244018754991
1158,78.67244018754991
1159,1.0
1160,0.0
1165,0.0
1166,1260.0
1167,78.67244018754991
1168,0.0
2522,0.0
2520,0.000007509401302081733
2521,48784.43515679031
2,1, 7, 1, 1, 1, 5.00,10.00,Monday
7,30.400000000000003
1151,0.0
1152,0.0
1153,80.6
1154,60.8
1155,80.6
1156,60.8
1157,79.1806189050678
1158,79.1806189050678
1159,0.0
1160,0.0
1165,0.0
1166,0.0
1167,79.1806189050678
1168,0.0
2522,0.0
2520,0.000007477935502597988
2521,48783.91637451404
2,1, 7, 1, 1, 1,10.00,15.00,Monday
7,30.300000000000006
1151,0.0
1152,0.0
1153,80.6
1154,60.8
1155,80.6
1156,60.8
1157,79.50945786893841
1158,79.50945786893841
1159,0.0
1160,0.0
1165,0.0
1166,0.0
1167,79.50945786893841
1168,0.0
2522,0.0
2520,0.000007454674398124381
2521,48783.37404662101
2,1, 7, 1, 1, 1,15.00,20.00,Monday
7,30.200000000000004
1151,0.0
1152,0.0
1153,80.6
1154,60.8
1155,80.6
1156,60.8
1157,79.7868039611521
1158,79.7868039611521
1159,0.0
1160,0.0
1165,0.0
1166,0.0
1167,79.7868039611521
1168,0.0
2522,0.0
2520,0.000007437782217754122
2521,48782.68465439959
2,1, 7, 1, 1, 1,20.00,25.00,Monday
7,30.099999999999999
1151,0.0
1152,0.0
1153,80.6
1154,60.8
1155,80.61950000000002
1156,60.7805
1157,79.93620522938156
1158,79.93620522938156
1159,0.0
1160,0.0
1165,0.0
1166,0.0
1167,79.93620522938156
1168,0.0
2522,0.0
2520,0.000007426284282729739
2521,48781.59781833478
2,1, 7, 1, 1, 1,25.00,30.00,Monday
7,30.0
1151,0.0
1152,0.0
1153,80.6
1154,60.8
1155,80.4703179980759
1156,60.92968200192411
1157,80.0400400679772
1158,80.0400400679772
1159,0.0
1160,0.0
1165,0.0
1166,0.0
1167,80.0400400679772
1168,0.0
2522,0.0
2520,0.000007419242717055552
2521,48780.440523994104
2,1, 7, 1, 1, 1,30.00,35.00,Monday
7,29.9
1151,0.0
1152,0.0
1153,80.6
1154,60.8
1155,80.483092387872
1156,60.916907612127989
1157,80.11144201962103
1158,80.11144201962103
1159,0.0
1160,0.0
1165,0.0
1166,0.0
1167,80.11144201962103
1168,0.0
2522,0.0
2520,0.000007415900620691405
2521,48779.23581609316
2,1, 7, 1, 1, 1,35.00,40.00,Monday
7,29.799999999999998
1151,0.0
1152,0.0
1153,80.6
1154,60.8
1155,80.48097491189296
1156,60.91902508810705
1157,80.16016895192959
1158,80.16016895192959
1159,0.0
1160,0.0
1165,0.0
1166,0.0
1167,80.16016895192959
1168,0.0
2522,0.0
2520,0.000007415642404747945
2521,48777.985429865286
2,1, 7, 1, 1, 1,40.00,45.00,Monday
7,29.699999999999997
1151,0.0
1152,0.0
1153,80.6
1154,60.8
1155,80.4803519589209
1156,60.919648041079117
1157,80.1926095346819
1158,80.1926095346819
1159,0.0
1160,0.0
1165,0.0
1166,0.0
1167,80.1926095346819
1168,0.0
2522,0.0
2520,0.000007417964147092688
2521,48776.69170219468
2,1, 7, 1, 1, 1,45.00,50.00,Monday
7,29.599999999999999
1151,0.0
1152,0.0
1153,80.6
1154,60.8
1155,80.48435385079607
1156,60.91564614920392
1157,80.21322032462909
1158,80.21322032462909
1159,0.0
1160,0.0
1165,0.0
1166,0.0
1167,80.21322032462909
1168,0.0
2522,0.0
2520,0.000007422451084749027
2521,48775.356977170515
2,1, 7, 1, 1, 1,50.00,55.00,Monday
7,29.5
1151,0.0
1152,0.0
1153,80.6
1154,60.8
1155,80.48233549239864
1156,60.91766450760136
1157,80.2248278815932
1158,80.2248278815932
1159,0.0
1160,0.0
1165,0.0
1166,0.0
1167,80.2248278815932
1168,0.0
2522,0.0
2520,0.000007428760281963782
2521,48773.98352382099
2,1, 7, 1, 1, 1,55.00,60.00,Monday
7,29.4
1151,0.0
1152,0.0
1153,80.6
1154,60.8
1155,80.47896532388528
1156,60.92103467611471
1157,80.22965260349584
1158,80.22965260349584
1159,0.0
1160,0.0
1165,0.0
1166,0.0
1167,80.22965260349584
1168,0.0
2522,0.0
2520,0.00000743660711437741
2521,48772.09329346495
2,1, 7, 1, 1, 2, 0.00, 5.00,Monday
7,29.291666666666666
1151,0.0
1152,0.0
1153,80.6
1154,60.8
1155,80.48018357257846
1156,60.91981642742154
1157,80.22934013202854
1158,80.22934013202854
1159,0.0
1160,0.0
1165,0.0
1166,0.0
1167,80.22934013202854
1168,0.0
2522,0.0
2520,0.0000074457546099487289
2521,48770.05968673335
2,1, 7, 1, 1, 2, 5.00,10.00,Monday
7,29.183333333333335
1151,0.0
1152,0.0
1153,80.6
1154,60.8
1155,80.4797233405742
1156,60.9202766594258
1157,80.2249916705043
1158,80.2249916705043
1159,0.0
1160,0.0
1165,0.0
1166,0.0
1167,80.2249916705043
1168,0.0
2522,0.0
2520,0.000007456004958565876
2521,48767.98828207154
2,1, 7, 1, 1, 2,10.00,15.00,Monday
7,29.074999999999997
1151,0.0
1152,0.0
1153,80.6
1154,60.8
1155,80.48113922294496
1156,60.918860777055048
1157,80.21743915572505
1158,80.21743915572505
1159,0.0
1160,0.0
1165,0.0
1166,0.0
1167,80.21743915572505
1168,0.0
2522,0.0
2520,0.000007467192689273442
2521,48765.91520399306
2,1, 7, 1, 1, 2,15.00,20.00,Monday
7,28.96666666666667
1151,0.0
1152,0.0
1153,80.6
1154,60.8
1155,80.47737018184111
1156,60.92262981815889
1157,80.20734202563742
1158,80.20734202563742
1159,0.0
1160,0.0
1165,0.0
1166,0.0
1167,80.20734202563742
1168,0.0
2522,0.0
2520,0.000007479179144984132
2521,48763.840233692565
2,1, 7, 1, 1, 2,20.00,25.00,Monday
7,28.858333333333336
1151,0.0
1152,0.0
1153,80.6
1154,60.8
1155,80.47778489178265
1156,60.92221510821734
1157,80.19509344136867
1158,80.19509344136867
1159,0.0
1160,0.0
1165,0.0
1166,0.0
1167,80.19509344136867
1168,0.0
2522,0.0
2520,0.000007491847977585722
2521,48761.76320998372
2,1, 7, 1, 1, 2,25.00,30.00,Monday
7,28.75
1151,0.0
1152,0.0
1153,80.6
1154,60.8
1155,80.48188096522176
1156,60.91811903477826
1157,80.18100774283458
1158,80.18100774283458
1159,0.0
1160,0.0
1165,0.0
1166,0.0
1167,80.18100774283458
1168,0.0
2522,0.0
2520,0.00000750510145337939
2521,48759.68398061377
2,1, 7, 1, 1, 2,30.00,35.00,Monday
7,28.641666666666667
1151,0.0
1152,0.0
1153,80.6
1154,60.8
1155,80.48062048102
1156,60.91937951898001
1157,80.16528700287967
1158,80.16528700287967
1159,0.0
1160,0.0
1165,0.0
1166,0.0
1167,80.16528700287967
1168,0.0
2522,0.0
2520,0.000007518857407694994
2521,48757.602442750984
2,1, 7, 1, 1, 2,35.00,40.00,Monday
7,28.533333333333336
1151,0.0
1152,0.0
1153,80.6
1154,60.8
1155,80.47757910973715
1156,60.922420890262859
1157,80.14815089083783
1158,80.14815089083783
1159,0.0
1160,0.0
1165,0.0
1166,0.0
1167,80.14815089083783
1168,0.0
2522,0.0
2520,0.000007533046723674465
2521,48755.51852351538
2,1, 7, 1, 1, 2,40.00,45.00,Monday
7,28.425000000000006
1151,0.0
1152,0.0
1153,80.6
1154,60.8
1155,80.48057522679984
1156,60.91942477320015
1157,80.1297138548648
1158,80.1297138548648
1159,0.0
1160,0.0
1165,0.0
1166,0.0
1167,80.1297138548648
1168,0.0
2522,0.0
2520,0.0000075476112372491309
2521,48753.432201515876
2,1, 7, 1, 1, 2,45.00,50.00,Monday
7,28.316666666666668
1151,0.0
1152,0.0
1153,80.6
1154,60.8
1155,80.47595736995175
1156,60.924042630048258
1157,80.11012503227956
1158,80.11012503227956
1159,0.0
1160,0.0
1165,0.0
1166,0.0
1167,80.11012503227956
1168,0.0
2522,0.0
2520,0.000007562501990788785
2521,48751.3434540273
2,1, 7, 1, 1, 2,50.00,55.00,Monday
7,28.208333333333337
1151,0.0
1152,0.0
1153,80.6
1154,60.8
1155,80.47799898143583
1156,60.922001018564177
1157,80.08945705511816
1158,80.08945705511816
1159,0.0
1160,0.0
1165,0.0
1166,0.0
1167,80.08945705511816
1168,0.0
2522,0.0
2520,0.000007565666522304715
2521,48749.2523413659
2,1, 7, 1, 1, 2,55.00,60.00,Monday
7,28.1
1151,0.0
1152,0.0
1153,80.6
1154,60.8
1155,80.47977911956042
1156,60.92022088043959
1157,80.06782074943593
1158,80.06782074943593
1159,0.0
1160,0.0
1165,0.0
1166,0.0
1167,80.06782074943593
1168,0.0
2522,0.0
2520,0.000007540598072497851
2521,48747.15887087385
2,1, 7, 1, 1, 3, 0.00, 5.00,Monday
7,28.0
1151,0.0
1152,0.0
1153,80.6
1154,60.8
1155,80.47778044888571
1156,60.92221955111428
1157,80.0452675369888
1158,80.0452675369888
1159,0.0
1160,0.0
1165,0.0
1166,0.0
1167,80.0452675369888
1168,0.0
2522,0.0
2520,0.000007504693867434263
2521,48745.18232387244
2,1, 7, 1, 1, 3, 5.00,10.00,Monday
7,27.9
1151,0.0
1152,0.0
1153,80.6
1154,60.8
1155,80.48318765391187
1156,60.91681234608812
1157,80.02207564575198
1158,80.02207564575198
1159,0.0
1160,0.0
1165,0.0
1166,0.0
1167,80.02207564575198
1168,0.0
2522,0.0
2520,0.0000074776901930860808
2521,48743.20514506775
2,1, 7, 1, 1, 3,10.00,15.00,Monday
7,27.800000000000006
1151,0.0
1152,0.0
1153,80.6
1154,60.8
1155,80.48002267845203
1156,60.91997732154796
1157,79.99822471081228
1158,79.99822471081228
1159,0.0
1160,0.0
1165,0.0
1166,0.0
1167,79.99822471081228
1168,0.0
2522,0.0
2520,0.000007457919066936342
2521,48741.22694456276
2,1, 7, 1, 1, 3,15.00,20.00,Monday
7,27.700000000000004
1151,0.0
1152,0.0
1153,80.6
1154,60.8
1155,80.47384540848883
1156,60.926154591511167
1157,79.97374542039509
1158,79.97374542039509
1159,0.0
1160,0.0
1165,0.0
1166,0.0
1167,79.97374542039509
1168,0.0
2522,0.0
2520,0.000007444069180222842
2521,48739.24743812681
2,1, 7, 1, 1, 3,20.00,25.00,Monday
7,27.6
1151,0.0
1152,0.0
1153,80.6
1154,60.8
1155,80.47736342697198
1156,60.92263657302803
1157,79.94865026112723
1158,79.94865026112723
1159,0.0
1160,0.0
1165,0.0
1166,0.0
1167,79.94865026112723
1168,0.0
2522,0.0
2520,0.000007435097300183711
2521,48737.266731940974
2,1, 7, 1, 1, 3,25.00,30.00,Monday
7,27.5
1151,0.0
1152,0.0
1153,80.6
1154,60.8
1155,80.48088201728175
1156,60.91911798271825
1157,79.92298264044024
1158,79.92298264044024
1159,0.0
1160,0.0
1165,0.0
1166,0.0
1167,79.92298264044024
1168,0.0
2522,0.0
2520,0.000007430165136259194
2521,48735.28476093172
2,1, 7, 1, 1, 3,30.00,35.00,Monday
7,27.4
1151,0.0
1152,0.0
1153,80.6
1154,60.8
1155,80.48120445033645
1156,60.91879554966356
1157,79.89647501130547
1158,79.89647501130547
1159,0.0
1160,0.0
1165,0.0
1166,0.0
1167,79.89647501130547
1168,0.0
2522,0.0
2520,0.000007428593402683311
2521,48733.293316566305
2,1, 7, 1, 1, 3,35.00,40.00,Monday
7,27.299999999999998
1151,0.0
1152,0.0
1153,80.6
1154,60.8
1155,80.47868250662242
1156,60.92131749337757
1157,79.86973567733318
1158,79.86973567733318
1159,0.0
1160,0.0
1165,0.0
1166,0.0
1167,79.86973567733318
1168,0.0
2522,0.0
2520,0.0000074298277658529679
2521,48731.30563744544
2,1, 7, 1, 1, 3,40.00,45.00,Monday
7,27.199999999999997
1151,0.0
1152,0.0
1153,80.6
1154,60.8
1155,80.47482485845802
1156,60.925175141542
1157,79.84252089487097
1158,79.84252089487097
1159,0.0
1160,0.0
1165,0.0
1166,0.0
1167,79.84252089487097
1168,0.0
2522,0.0
2520,0.000007433413178320831
2521,48729.31891728584
2,1, 7, 1, 1, 3,45.00,50.00,Monday
7,27.1
1151,0.0
1152,0.0
1153,80.6
1154,60.8
1155,80.47671863911401
1156,60.92328136088601
1157,79.81482709454902
1158,79.81482709454902
1159,0.0
1160,0.0
1165,0.0
1166,0.0
1167,79.81482709454902
1168,0.0
2522,0.0
2520,0.000007438974243812952
2521,48727.33086787944
2,1, 7, 1, 1, 3,50.00,55.00,Monday
7,27.0
1151,0.0
1152,0.0
1153,80.6
1154,60.8
1155,80.47643621930473
1156,60.923563780695278
1157,79.78667408960823
1158,79.78667408960823
1159,0.0
1160,0.0
1165,0.0
1166,0.0
1167,79.78667408960823
1168,0.0
2522,0.0
2520,0.000007446199994805142
2521,48725.34161406015
2,1, 7, 1, 1, 3,55.00,60.00,Monday
7,26.9
1151,0.0
1152,0.0
1153,80.6
1154,60.8
1155,80.47819875629785
1156,60.92180124370216
1157,79.75810234853808
1158,79.75810234853808
1159,0.0
1160,0.0
1165,0.0
1166,0.0
1167,79.75810234853808
1168,0.0
2522,0.0
2520,0.000007454831950079049
2521,48723.351001363284
2,1, 7, 1, 1, 4, 0.00, 5.00,Monday
7,26.791666666666666
1151,0.0
1152,0.0
1153,80.6
1154,60.8
1155,80.48438865356948
1156,60.91561134643051
1157,79.72912149763858
1158,79.72912149763858
1159,0.0
1160,0.0
1165,0.0
1166,0.0
1167,79.72912149763858
1168,0.0
2522,0.0
2520,0.000007464654646108198
2521,49015.25165203525
2,1, 7, 1, 1, 4, 5.00,10.00,Monday
7,26.683333333333335
1151,0.0
1152,0.0
1153,80.6
1154,60.8
1155,80.47822059923121
1156,60.921779400768787
1157,79.69959410586776
1158,79.69959410586776
1159,0.0
1160,0.0
1165,0.0
1166,0.0
1167,79.69959410586776
1168,0.0
2522,0.0
2520,0.000007475488059387831
2521,49012.637567376616
2,1, 7, 1, 1, 4,10.00,15.00,Monday
7,26.574999999999997
1151,0.0
1152,0.0
1153,80.6
1154,60.8
1155,80.4801322744812
1156,60.919867725518788
1157,79.66960182601369
1158,79.66960182601369
1159,0.0
1160,0.0
1165,0.0
1166,0.0
1167,79.66960182601369
1168,0.0
2522,0.0
2520,0.000007487181492010525
2521,49010.02079233622
2,1, 7, 1, 1, 4,15.00,20.00,Monday
7,26.46666666666667
1151,0.0
1152,0.0
1153,80.6
1154,60.8
1155,80.47874859966304
1156,60.92125140033695
1157,79.63905226369892
1158,79.63905226369892
1159,0.0
1160,0.0
1165,0.0
1166,0.0
1167,79.63905226369892
1168,0.0
2522,0.0
2520,0.000007499608602292027
2521,49007.397811137416
2,1, 7, 1, 1, 4,20.00,25.00,Monday
7,26.358333333333336
1151,0.0
1152,0.0
1153,80.6
1154,60.8
1155,80.47261031836422
1156,60.92738968163576
1157,79.60823197036425
1158,79.60823197036425
1159,0.0
1160,0.0
1165,0.0
1166,0.0
1167,79.60823197036425
1168,0.0
2522,0.0
2520,0.000007512663340628135
2521,49004.7756492365
2,1, 7, 1, 1, 4,25.00,30.00,Monday
7,26.25
1151,0.0
1152,0.0
1153,80.6
1154,60.8
1155,80.47551284820824
1156,60.924487151791748
1157,79.5769513782696
1158,79.5769513782696
1159,0.0
1160,0.0
1165,0.0
1166,0.0
1167,79.5769513782696
1168,0.0
2522,0.0
2520,0.0000075262566076157189
2521,49002.14871565624
2,1, 7, 1, 1, 4,30.00,35.00,Monday
7,26.141666666666667
1151,0.0
1152,0.0
1153,80.6
1154,60.8
1155,80.47801003387869
1156,60.9219899661213
1157,79.54545965655528
1158,79.54545965655528
1159,0.0
1160,0.0
1165,0.0
1166,0.0
1167,79.54545965655528
1168,0.0
2522,0.0
2520,0.000007540313493234421
2521,48999.52282124875
2,1, 7, 1, 1, 4,35.00,40.00,Monday
7,26.03333333333333
1151,0.0
1152,0.0
1153,80.6
1154,60.8
1155,80.48227245960439
1156,60.917727540395627
1157,79.51356832614488
1158,79.51356832614488
1159,0.0
1160,0.0
1165,0.0
1166,0.0
1167,79.51356832614488
1168,0.0
2522,0.0
2520,0.000007554770986949897
2521,48996.892464884615
2,1, 7, 1, 1, 4,40.00,45.00,Monday
7,25.925000000000006
1151,0.0
1152,0.0
1153,80.6
1154,60.8
1155,80.47718896410163
1156,60.922811035898387
1157,79.4813575826349
1158,79.4813575826349
1159,0.0
1160,0.0
1165,0.0
1166,0.0
1167,79.4813575826349
1168,0.0
2522,0.0
2520,0.00000756957607196895
2521,48994.2597651062
2,1, 7, 1, 1, 4,45.00,50.00,Monday
7,25.81666666666667
1151,0.0
1152,0.0
1153,80.6
1154,60.8
1155,80.48068948263061
1156,60.91931051736938
1157,79.44886952504879
1158,79.44886952504879
1159,0.0
1160,0.0
1165,0.0
1166,0.0
1167,79.44886952504879
1168,0.0
2522,0.0
2520,0.000007560233705437452
2521,48991.62592728812
2,1, 7, 1, 1, 4,50.00,55.00,Monday
7,25.708333333333337
1151,0.0
1152,0.0
1153,80.6
1154,60.8
1155,80.47376254277252
1156,60.92623745722747
1157,79.41612667682796
1158,79.41612667682796
1159,0.0
1160,0.0
1165,0.0
1166,0.0
1167,79.41612667682796
1168,0.0
2522,0.0
2520,0.000007525600575170011
2521,48988.99106095598
2,1, 7, 1, 1, 4,55.00,60.00,Monday
7,25.6
1151,0.0
1152,0.0
1153,80.6
1154,60.8
1155,80.47549047312093
1156,60.92450952687908
1157,79.38314118086115
1158,79.38314118086115
1159,0.0
1160,0.0
1165,0.0
1166,0.0
1167,79.38314118086115
1168,0.0
2522,0.0
2520,0.0000074933806391469638
2521,48986.354964675564
2,1, 7, 1, 1, 5, 0.00, 5.00,Monday
7,25.5
1151,0.0
1152,0.0
1153,80.6
1154,60.8
1155,80.47933545158543
1156,60.92066454841457
1157,79.34992701517195
1158,79.34992701517195
1159,0.0
1160,0.0
1165,0.0
1166,0.0
1167,79.34992701517195
1168,0.0
2522,0.0
2520,0.000007469363850123844
2521,48965.44610274982
2,1, 7, 1, 1, 5, 5.00,10.00,Monday
7,25.400000000000003
1151,0.0
1152,0.0
1153,80.6
1154,60.8
1155,80.47670525989122
1156,60.92329474010877
1157,79.31680154993066
1158,79.31680154993066
1159,0.0
1160,0.0
1165,0.0
1166,0.0
1167,79.31680154993066
1168,0.0
2522,0.0
2520,0.000007452033391543615
2521,48963.00025537172
2,1, 7, 1, 1, 5,10.00,15.00,Monday
7,25.300000000000006
1151,0.0
1152,0.0
1153,80.6
1154,60.8
1155,80.47440166977091
1156,60.92559833022908
1157,79.28368157426442
1158,79.28368157426442
1159,0.0
1160,0.0
1165,0.0
1166,0.0
1167,79.28368157426442
1168,0.0
2522,0.0
2520,0.000007440190980172903
2521,48960.55508449772
2,1, 7, 1, 1, 5,15.00,20.00,Monday
7,25.200000000000004
1151,0.0
1152,0.0
1153,80.6
1154,60.8
1155,80.48150770116789
1156,60.918492298832109
1157,79.25051350887921
1158,79.25051350887921
1159,0.0
1160,0.0
1165,0.0
1166,0.0
1167,79.25051350887921
1168,0.0
2522,0.0
2520,0.000007432879399489343
2521,48958.110012539364
2,1, 7, 1, 1, 5,20.00,25.00,Monday
7,25.099999999999999
1151,0.0
1152,0.0
1153,80.6
1154,60.8
1155,80.48151121135959
1156,60.918488788640427
1157,79.21724566925409
1158,79.21724566925409
1159,0.0
1160,0.0
1165,0.0
1166,0.0
1167,79.21724566925409
1168,0.0
2522,0.0
2520,0.00000742932683206388
2521,48955.66506972987
2,1, 7, 1, 1, 5,25.00,30.00,Monday
7,25.0
1151,0.0
1152,0.0
1153,80.6
1154,60.8
1155,80.4749570148275
1156,60.92504298517251
1157,79.18386974298507
1158,79.18386974298507
1159,0.0
1160,0.0
1165,0.0
1166,0.0
1167,79.18386974298507
1168,0.0
2522,0.0
2520,0.000007428906050646483
2521,48953.21997946423
2,1, 7, 1, 1, 5,30.00,35.00,Monday
7,24.9
1151,0.0
1152,0.0
1153,80.6
1154,60.8
1155,80.47557809815538
1156,60.924421901844628
1157,79.15038651439224
1158,79.15038651439224
1159,0.0
1160,0.0
1165,0.0
1166,0.0
1167,79.15038651439224
1168,0.0
2522,0.0
2520,0.0000074311039643895909
2521,48950.77490504136
2,1, 7, 1, 1, 5,35.00,40.00,Monday
7,24.8
1151,0.0
1152,0.0
1153,80.6
1154,60.8
1155,80.4773585050824
1156,60.922641494917588
1157,79.11678907831963
1158,79.11678907831963
1159,0.0
1160,0.0
1165,0.0
1166,0.0
1167,79.11678907831963
1168,0.0
2522,0.0
2520,0.000007435498527692609
2521,48948.329649356245
2,1, 7, 1, 1, 5,40.00,45.00,Monday
7,24.699999999999997
1151,0.0
1152,0.0
1153,80.6
1154,60.8
1155,80.47846097917517
1156,60.92153902082481
1157,79.0830834682136
1158,79.0830834682136
1159,0.0
1160,0.0
1165,0.0
1166,0.0
1167,79.0830834682136
1168,0.0
2522,0.0
2520,0.0000074417409802594799
2521,48945.884407033576
2,1, 7, 1, 1, 5,45.00,50.00,Monday
7,24.599999999999999
1151,0.0
1152,0.0
1153,80.6
1154,60.8
1155,80.47593896209367
1156,60.92406103790634
1157,79.0492677678215
1158,79.0492677678215
1159,0.0
1160,0.0
1165,0.0
1166,0.0
1167,79.0492677678215
1168,0.0
2522,0.0
2520,0.000007449542012427525
2521,48943.43900886404
2,1, 7, 1, 1, 5,50.00,55.00,Monday
7,24.499999999999998
1151,0.0
1152,0.0
1153,80.6
1154,60.8
1155,80.4745214802238
1156,60.92547851977622
1157,79.01534821529634
1158,79.01534821529634
1159,0.0
1160,0.0
1165,0.0
1166,0.0
1167,79.01534821529634
1168,0.0
2522,0.0
2520,0.000007458660865220716
2521,48940.99365283199
2,1, 7, 1, 1, 5,55.00,60.00,Monday
7,24.4
1151,0.0
1152,0.0
1153,80.6
1154,60.8
1155,80.47469929901169
1156,60.925300700988319
1157,78.98132362852499
1158,78.98132362852499
1159,0.0
1160,0.0
1165,0.0
1166,0.0
1167,78.98132362852499
1168,0.0
2522,0.0
2520,0.000007468896655669533
2521,48938.54818282244
2,1, 7, 1, 1, 6, 0.00, 5.00,Monday
7,24.30833333333333
1151,0.0
1152,0.0
1153,80.6
1154,60.8
1155,80.4782524670542
1156,60.921747532945818
1157,78.94720192447825
1158,78.94720192447825
1159,0.0
1160,0.0
1165,0.0
1166,0.0
1167,78.94720192447825
1168,0.0
2522,0.0
2520,30404.690369179596
2521,79903.79492888603
2,1, 7, 1, 1, 6, 5.00,10.00,Monday
7,24.216666666666666
1151,11389.126785350883
1152,0.0
1153,80.6
1154,60.8
1155,80.47983413734164
1156,60.92016586265835
1157,77.96405869940256
1158,77.96405869940256
1159,1.0
1160,0.0
1165,672.0
1166,26812.0
1167,77.96405869940256
1168,0.0
2522,0.0
2520,30259.626715738366
2521,79727.68868646396
2,1, 7, 1, 1, 6,10.00,15.00,Monday
7,24.124999999999998
1151,11302.742416669871
1152,0.0
1153,80.6
1154,60.8
1155,80.47528005720354
1156,60.92471994279646
1157,77.03018485236234
1158,77.03018485236234
1159,1.0
1160,0.0
1165,672.0
1166,26812.0
1167,77.03018485236234
1168,0.0
2522,0.0
2520,30141.455732922972
2521,79563.35129422456
2,1, 7, 1, 1, 6,15.00,20.00,Monday
7,24.033333333333336
1151,11243.65692525016
1152,0.0
1153,80.6
1154,60.8
1155,80.47422410862458
1156,60.92577589137544
1157,76.4483362066926
1158,76.4483362066926
1159,1.0
1160,0.0
1165,672.0
1166,26812.0
1167,76.4483362066926
1168,0.0
2522,0.0
2520,30022.53931628947
2521,79424.24565868819
2,1, 7, 1, 1, 6,20.00,25.00,Monday
7,23.941666666666664
1151,22368.39743435793
1152,0.0
1153,80.6
1154,60.8
1155,80.47741894463468
1156,60.92258105536533
1157,76.00916069208235
1158,76.00916069208235
1159,1.0
1160,0.0
1165,672.0
1166,26812.0
1167,76.00916069208235
1168,0.0
2522,0.0
2520,29902.835334762665
2521,70717.7699516538
2,1, 7, 1, 1, 6,25.00,30.00,Monday
7,23.85
1151,22248.69345281735
1152,0.0
1153,80.6
1154,60.8
1155,80.48169783815765
1156,60.91830216184235
1157,75.7843520540389
1158,75.7843520540389
1159,1.0
1160,0.0
1165,672.0
1166,26812.0
1167,75.7843520540389
1168,0.0
2522,0.0
2520,29782.358857882577
2521,70589.4673360996
2,1, 7, 1, 1, 6,30.00,35.00,Monday
7,23.758333333333334
1151,22128.216975923056
1152,0.0
1153,80.6
1154,60.8
1155,80.4787766668437
1156,60.921223333156309
1157,75.62346486147163
1158,75.62346486147163
1159,1.0
1160,0.0
1165,672.0
1166,26812.0
1167,75.62346486147163
1168,0.0
2522,0.0
2520,29661.111344750523
2521,70462.88916030567
2,1, 7, 1, 1, 6,35.00,40.00,Monday
7,23.666666666666669
1151,22006.9694627764
1152,0.0
1153,80.6
1154,60.8
1155,80.48342507580473
1156,60.916574924195277
1157,75.49910908440482
1158,75.49910908440482
1159,1.0
1160,0.0
1165,672.0
1166,26812.0
1167,75.49910908440482
1168,0.0
2522,0.0
2520,29539.093053021643
2521,70336.98687719763
2,1, 7, 1, 1, 6,40.00,45.00,Monday
7,23.575000000000004
1151,21884.951171038214
1152,0.0
1153,80.6
1154,60.8
1155,80.48531540277915
1156,60.91468459722086
1157,75.39974904561373
1158,75.39974904561373
1159,1.0
1160,0.0
1165,672.0
1166,26812.0
1167,75.39974904561373
1168,0.0
2522,0.0
2520,29416.29411065743
2521,70211.1940844352
2,1, 7, 1, 1, 6,45.00,50.00,Monday
7,23.483333333333336
1151,21762.152228694384
1152,0.0
1153,80.6
1154,60.8
1155,80.48668408608764
1156,60.91331591391238
1157,75.31623138734685
1158,75.31623138734685
1159,1.0
1160,0.0
1165,672.0
1166,26812.0
1167,75.31623138734685
1168,0.0
2522,0.0
2520,29292.72537367883
2521,70085.15865368823
2,1, 7, 1, 1, 6,50.00,55.00,Monday
7,23.39166666666667
1151,21638.58349175382
1152,0.0
1153,80.6
1154,60.8
1155,80.48543599863906
1156,60.91456400136094
1157,75.24518492271831
1158,75.24518492271831
1159,1.0
1160,0.0
1165,672.0
1166,26812.0
1167,75.24518492271831
1168,0.0
2522,0.0
2520,29168.373838142747
2521,69958.66338812968
2,1, 7, 1, 1, 6,55.00,60.00,Monday
7,23.3
1151,21514.23195624647
1152,0.0
1153,80.6
1154,60.8
1155,80.48578183860036
1156,60.91421816139964
1157,75.182707374561
1158,75.182707374561
1159,1.0
1160,0.0
1165,672.0
1166,26812.0
1167,75.182707374561
1168,0.0
2522,0.0
2520,29043.244534385012
2521,69831.56290049777
2,1, 7, 1, 1, 7, 0.00, 5.00,Monday
7,23.533333333333336
1151,21389.102652509908
1152,0.0
1153,80.6
1154,60.8
1155,80.48416502062918
1156,60.91583497937083
1157,75.12685497386458
1158,75.12685497386458
1159,1.0
1160,0.0
1165,672.0
1166,26812.0
1167,75.12685497386458
1168,0.0
2522,0.0
2520,35287.16903283355
2521,75986.12828538617
2,1, 7, 1, 1, 7, 5.00,10.00,Monday
7,23.766666666666667
1151,12528.354951161979
1152,0.0
1153,76.56119924319605
1154,67.53133459467327
1155,76.44631525509317
1156,67.64621858277613
1157,74.84475035650545
1158,74.84475035650545
1159,1.0
1160,0.0
1165,672.0
1166,26812.0
1167,74.84475035650545
1168,0.0
2522,0.0
2520,33758.2301089525
2521,74454.74011305944
2,1, 7, 1, 1, 7,10.00,15.00,Monday
7,24.0
1151,25936.903800596872
1152,113.48874271343596
1153,76.56119924319605
1154,67.53133459467327
1155,76.44819107039914
1156,67.64434276747018
1157,74.77420445086618
1158,74.77420445086618
1159,1.0
1160,1.0
1165,672.0
1166,26812.0
1167,74.77420445086618
1168,0.0
2522,0.0
2520,34401.0445708333
2521,75098.13109707735
2,1, 7, 1, 1, 7,15.00,20.00,Monday
7,24.233333333333336
1151,26606.76957669154
1152,77.27296085489592
1153,76.56119924319605
1154,67.53133459467327
1155,76.44744730051393
1156,67.64508653735538
1157,74.7366646414772
1158,74.7366646414772
1159,1.0
1160,1.0
1165,672.0
1166,26812.0
1167,74.7366646414772
1168,0.0
2522,0.0
2520,35055.68121038289
2521,75756.18486768884
2,1, 7, 1, 1, 7,20.00,25.00,Monday
7,24.46666666666667
1151,27329.976317667588
1152,0.0
1153,76.56119924319605
1154,67.53133459467327
1155,76.44772060962078
1156,67.64481322824853
1157,74.70273633170442
1158,74.70273633170442
1159,1.0
1160,0.0
1165,672.0
1166,26812.0
1167,74.70273633170442
1168,0.0
2522,0.0
2520,35792.555170048676
2521,76497.01593310997
2,1, 7, 1, 1, 7,25.00,30.00,Monday
7,24.700000000000004
1151,28057.261059282657
1152,0.0
1153,76.56119924319605
1154,67.53133459467327
1155,76.4494527727786
1156,67.64308106509071
1157,74.67175824119028
1158,74.67175824119028
1159,1.0
1160,0.0
1165,672.0
1166,26812.0
1167,74.67175824119028
1168,0.0
2522,0.0
2520,36560.644219995025
2521,77269.66789276919
2,1, 7, 1, 1, 7,30.00,35.00,Monday
7,24.933333333333335
1151,28812.705964390057
1152,0.0
1153,76.56119924319605
1154,67.53133459467327
1155,76.44855444937103
1156,67.64397938849828
1157,74.64232643822965
1158,74.64232643822965
1159,1.0
1160,0.0
1165,672.0
1166,26812.0
1167,74.64232643822965
1168,0.0
2522,0.0
2520,37285.76539083599
2521,77999.5501203756
2,1, 7, 1, 1, 7,35.00,40.00,Monday
7,25.166666666666666
1151,29530.78096719807
1152,0.0
1153,76.56119924319605
1154,67.53133459467327
1155,76.45166044853778
1156,67.64087338933152
1157,74.61530599290222
1158,74.61530599290222
1159,1.0
1160,0.0
1165,672.0
1166,26812.0
1167,74.61530599290222
1168,0.0
2522,0.0
2520,38035.033156851765
2521,78753.57488060169
2,1, 7, 1, 1, 7,40.00,45.00,Monday
7,25.400000000000003
1151,30270.38387440246
1152,0.0
1153,76.56119924319605
1154,67.53133459467327
1155,76.4499330140213
1156,67.642600823848
1157,74.58896826292546
1158,74.58896826292546
1159,1.0
1160,0.0
1165,672.0
1166,26812.0
1167,74.58896826292546
1168,0.0
2522,0.0
2520,38768.42511202449
2521,79491.73801717273
2,1, 7, 1, 1, 7,45.00,50.00,Monday
7,25.633333333333338
1151,30996.59253174716
1152,0.0
1153,76.56119924319605
1154,67.53133459467327
1155,76.45183347923043
1156,67.6407003586389
1157,74.56478950564538
1158,74.56478950564538
1159,1.0
1160,0.0
1165,672.0
1166,26812.0
1167,74.56478950564538
1168,0.0
2522,0.0
2520,39502.556727374285
2521,80230.63360322248
2,1, 7, 1, 1, 7,50.00,55.00,Monday
7,25.866666666666668
1151,31723.595512652337
1152,0.0
1153,76.56119924319605
1154,67.53133459467327
1155,76.45633351469101
1156,67.63620032317829
1157,74.54289287660167
1158,74.54289287660167
1159,1.0
1160,0.0
1165,672.0
1166,26812.0
1167,74.54289287660167
1168,0.0
2522,0.0
2520,40271.39335901648
2521,81004.25035102619
2,1, 7, 1, 1, 7,55.00,60.00,Monday
7,26.1
1151,32481.308486030823
1152,0.0
1153,76.56119924319605
1154,67.53133459467327
1155,76.45443001269888
1156,67.63810382517043
1157,74.5214271089342
1158,74.5214271089342
1159,1.0
1160,0.0
1165,672.0
1166,26812.0
1167,74.5214271089342
1168,0.0
2522,0.0
2520,41010.96727406677
2521,81748.62531410335
2,1, 7, 1, 1, 8, 0.00, 5.00,Monday
7,26.375
1151,33213.98020664731
1152,0.0
1153,76.56119924319605
1154,67.53133459467327
1155,76.45909506438213
1156,67.63343877348719
1157,74.50288439435755
1158,74.50288439435755
1159,1.0
1160,0.0
1165,672.0
1166,26812.0
1167,74.50288439435755
1168,0.0
2522,0.0
2520,45029.33388178548
2521,133992.3917037206
2,1, 7, 1, 1, 8, 5.00,10.00,Monday
7,26.650000000000003
1151,18618.582459256573
1152,0.0
1153,76.56119924319605
1154,67.53133459467327
1155,76.45763343682822
1156,67.63490040104108
1157,74.76615163900564
1158,74.76615163900564
1159,1.0
1160,0.0
1165,672.0
1166,26812.0
1167,74.76615163900564
1168,216.58844050947497
2522,0.0
2520,48145.826050840624
2521,137122.61585417996
2,1, 7, 1, 1, 8,10.00,15.00,Monday
7,26.925000000000006
1151,39390.02996209167
1152,0.0
1153,76.56119924319605
1154,67.53133459467327
1155,76.45965360101173
1156,67.63288023685759
1157,74.90166894864882
1158,74.90166894864882
1159,1.0
1160,0.0
1165,672.0
1166,26812.0
1167,74.90166894864882
1168,216.58844050947497
2522,0.0
2520,49495.29348881487
2521,138481.4274317778
2,1, 7, 1, 1, 8,15.00,20.00,Monday
7,27.200000000000004
1151,40640.00576097594
1152,0.0
1153,76.56119924319605
1154,67.53133459467327
1155,76.46109938060258
1156,67.63143445726675
1157,74.93642376318641
1158,74.93642376318641
1159,1.0
1160,0.0
1165,672.0
1166,26812.0
1167,74.93642376318641
1168,216.58844050947497
2522,0.0
2520,50673.68106222769
2521,139667.24757763229
2,1, 7, 1, 1, 8,20.00,25.00,Monday
7,27.475
1151,41758.69480260244
1152,0.0
1153,76.56119924319605
1154,67.53133459467327
1155,76.46152019172176
1156,67.63101364614752
1157,74.95825926390805