Program Version,EnergyPlus, Version 9.3.0-60e3a1f2d5 (No OpenGL), YMD=2022.07.11 20:03
1,5,Environment Title[],Latitude[deg],Longitude[deg],Time Zone[],Elevation[m]
2,8,Day of Simulation[],Month[],Day of Month[],DST Indicator[1=yes 0=no],Hour[],StartMinute[],EndMinute[],DayType
3,5,Cumulative Day of Simulation[],Month[],Day of Month[],DST Indicator[1=yes 0=no],DayType  ! When Daily Report Variables Requested
4,2,Cumulative Days of Simulation[],Month[]  ! When Monthly Report Variables Requested
5,1,Cumulative Days of Simulation[] ! When Run Period Report Variables Requested
6,1,Calendar Year of Simulation[] ! When Annual Report Variables Requested
7,1,Environment,Site Outdoor Air Drybulb Temperature [C] !TimeStep
1151,1,EMS,Cooling Controlled Load [] !TimeStep
1152,1,EMS,Heating Controlled Load [] !TimeStep
1153,1,EMS,Cooling Schedule Temperature [] !TimeStep
1154,1,EMS,Heating Schedule Temperature [] !TimeStep
1155,1,EMS,Cooling Setpoint Temperature [] !TimeStep
1156,1,EMS,Heating Setpoint Temperature [] !TimeStep
1157,1,EMS,Cooling Current Temperature [] !TimeStep
1158,1,EMS,Heating Current Temperature [] !TimeStep
1159,1,EMS,Cooling Power State [] !TimeStep
1160,1,EMS,Heating Power State [] !TimeStep
1165,1,EMS,Heating Volume [] !TimeStep
1166,1,EMS,Cooling Volume [] !TimeStep
1167,1,EMS,Indoor Air Temperature [] !TimeStep
1168,1,EMS,Occupant Count [] !TimeStep
2520,1,Whole Building,Facility Total HVAC Electric Demand Power [W] !TimeStep
2521,1,Whole Building,Facility Total Electric Demand Power [W] !TimeStep
2522,1,Facility,Facility Thermal Comfort ASHRAE 55 Simple Model Summer or Winter Clothes Not Comfortable Time [hr] !TimeStep
End of Data Dictionary
1,RUNPERIOD 1,  32.13,-110.95,  -7.00, 777.00
2,1, 7, 1, 1, 1, 0.00, 5.00,Monday
7,30.5
1151,1258.3924299926503
1152,0.0
1153,80.6
1154,60.8
1155,80.6
1156,60.8
1157,78.67455449698966
1158,78.67455449698966
1159,1.0
1160,0.0
1165,0.0
1166,1260.0
1167,78.67455449698966
1168,0.0
2522,0.0
2520,0.000007509401301000446
2521,48784.43478591596
2,1, 7, 1, 1, 1, 5.00,10.00,Monday
7,30.400000000000003
1151,0.0
1152,0.0
1153,80.6
1154,60.8
1155,80.6
1156,60.8
1157,79.18275057036414
1158,79.18275057036414
1159,0.0
1160,0.0
1165,0.0
1166,0.0
1167,79.18275057036414
1168,0.0
2522,0.0
2520,0.0000074779355017037068
2521,48783.91600182571
2,1, 7, 1, 1, 1,10.00,15.00,Monday
7,30.300000000000006
1151,0.0
1152,0.0
1153,80.6
1154,60.8
1155,80.6
1156,60.8
1157,79.51157056991826
1158,79.51157056991826
1159,0.0
1160,0.0
1165,0.0
1166,0.0
1167,79.51157056991826
1168,0.0
2522,0.0
2520,0.000007454674397381563
2521,48783.37365195906
2,1, 7, 1, 1, 1,15.00,20.00,Monday
7,30.200000000000004
1151,0.0
1152,0.0
1153,80.6
1154,60.8
1155,80.6
1156,60.8
1157,79.78886672202448
1158,79.78886672202448
1159,0.0
1160,0.0
1165,0.0
1166,0.0
1167,79.78886672202448
1168,0.0
2522,0.0
2520,0.000007437782217134866
2521,48782.68423968848
2,1, 7, 1, 1, 1,20.00,25.00,Monday
7,30.099999999999999
1151,0.0
1152,0.0
1153,80.6
1154,60.8
1155,80.61950000000002
1156,60.7805
1157,79.93823921899325
1158,79.93823921899325
1159,0.0
1160,0.0
1165,0.0
1166,0.0
1167,79.93823921899325
1168,0.0
2522,0.0
2520,0.000007426284282211937
2521,48781.59739404958
2,1, 7, 1, 1, 1,25.00,30.00,Monday
7,30.0
1151,0.0
1152,0.0
1153,80.6
1154,60.8
1155,80.4703179980759
1156,60.92968200192411
1157,80.04204917361679
1158,80.04204917361679
1159,0.0
1160,0.0
1165,0.0
1166,0.0
1167,80.04204917361679
1168,0.0
2522,0.0
2520,0.000007419242716621394
2521,48780.44009082814
2,1, 7, 1, 1, 1,30.00,35.00,Monday
7,29.9
1151,0.0
1152,0.0
1153,80.6
1154,60.8
1155,80.48309237714864
1156,60.91690762285137
1157,80.11342542117885
1158,80.11342542117885
1159,0.0
1160,0.0
1165,0.0
1166,0.0
1167,80.11342542117885
1168,0.0
2522,0.0
2520,0.00000741590062032653
2521,48779.23537413145
2,1, 7, 1, 1, 1,35.00,40.00,Monday
7,29.799999999999998
1151,0.0
1152,0.0
1153,80.6
1154,60.8
1155,80.48097491180778
1156,60.919025088192217
1157,80.16212786378186
1158,80.16212786378186
1159,0.0
1160,0.0
1165,0.0
1166,0.0
1167,80.16212786378186
1168,0.0
2522,0.0
2520,0.00000741564240444059
2521,48777.984979122295
2,1, 7, 1, 1, 1,40.00,45.00,Monday
7,29.699999999999997
1151,0.0
1152,0.0
1153,80.6
1154,60.8
1155,80.48035195883246
1156,60.91964804116754
1157,80.1945425981368
1158,80.1945425981368
1159,0.0
1160,0.0
1165,0.0
1166,0.0
1167,80.1945425981368
1168,0.0
2522,0.0
2520,0.0000074179641468332099
2521,48776.691253899786
2,1, 7, 1, 1, 1,45.00,50.00,Monday
7,29.599999999999999
1151,0.0
1152,0.0
1153,80.6
1154,60.8
1155,80.48296168320965
1156,60.91703831679035
1157,80.21513225470999
1158,80.21513225470999
1159,0.0
1160,0.0
1165,0.0
1166,0.0
1167,80.21513225470999
1168,0.0
2522,0.0
2520,0.000007422451084529516
2521,48775.35650902205
2,1, 7, 1, 1, 1,50.00,55.00,Monday
7,29.5
1151,0.0
1152,0.0
1153,80.6
1154,60.8
1155,80.48233625631925
1156,60.91766374368075
1157,80.22671753380294
1158,80.22671753380294
1159,0.0
1160,0.0
1165,0.0
1166,0.0
1167,80.22671753380294
1168,0.0
2522,0.0
2520,0.000007428760281777645
2521,48773.98305790714
2,1, 7, 1, 1, 1,55.00,60.00,Monday
7,29.4
1151,0.0
1152,0.0
1153,80.6
1154,60.8
1155,80.47896506258904
1156,60.921034937410968
1157,80.2315206369754
1158,80.2315206369754
1159,0.0
1160,0.0
1165,0.0
1166,0.0
1167,80.2315206369754
1168,0.0
2522,0.0
2520,0.000007436607114219184
2521,48772.09269758421
2,1, 7, 1, 1, 2, 0.00, 5.00,Monday
7,29.291666666666666
1151,0.0
1152,0.0
1153,80.6
1154,60.8
1155,80.48157434891384
1156,60.91842565108616
1157,80.23118709953674
1158,80.23118709953674
1159,0.0
1160,0.0
1165,0.0
1166,0.0
1167,80.23118709953674
1168,0.0
2522,0.0
2520,0.000007445754609813929
2521,48770.05908809026
2,1, 7, 1, 1, 2, 5.00,10.00,Monday
7,29.183333333333335
1151,0.0
1152,0.0
1153,80.6
1154,60.8
1155,80.47972262829578
1156,60.920277371704219
1157,80.22681795833131
1158,80.22681795833131
1159,0.0
1160,0.0
1165,0.0
1166,0.0
1167,80.22681795833131
1168,0.0
2522,0.0
2520,0.000007456004958450738
2521,48767.98768067169
2,1, 7, 1, 1, 2,10.00,15.00,Monday
7,29.074999999999997
1151,0.0
1152,0.0
1153,80.6
1154,60.8
1155,80.47974513403001
1156,60.920254865969997
1157,80.21924522651088
1158,80.21924522651088
1159,0.0
1160,0.0
1165,0.0
1166,0.0
1167,80.21924522651088
1168,0.0
2522,0.0
2520,0.000007467192689174808
2521,48765.91459989817
2,1, 7, 1, 1, 2,15.00,20.00,Monday
7,28.96666666666667
1151,0.0
1152,0.0
1153,80.6
1154,60.8
1155,80.47881108083023
1156,60.92118891916977
1157,80.20912832033801
1158,80.20912832033801
1159,0.0
1160,0.0
1165,0.0
1166,0.0
1167,80.20912832033801
1168,0.0
2522,0.0
2520,0.0000074791791448993588
2521,48763.839626986526
2,1, 7, 1, 1, 2,20.00,25.00,Monday
7,28.858333333333336
1151,0.0
1152,0.0
1153,80.6
1154,60.8
1155,80.47641380718349
1156,60.92358619281653
1157,80.1968605469038
1158,80.1968605469038
1159,0.0
1160,0.0
1165,0.0
1166,0.0
1167,80.1968605469038
1168,0.0
2522,0.0
2520,0.000007491847977512594
2521,48761.762600788155
2,1, 7, 1, 1, 2,25.00,30.00,Monday
7,28.75
1151,0.0
1152,0.0
1153,80.6
1154,60.8
1155,80.48051426884334
1156,60.91948573115666
1157,80.18275612335717
1158,80.18275612335717
1159,0.0
1160,0.0
1165,0.0
1166,0.0
1167,80.18275612335717
1168,0.0
2522,0.0
2520,0.000007505101453315974
2521,48759.68336905458
2,1, 7, 1, 1, 2,30.00,35.00,Monday
7,28.641666666666667
1151,0.0
1152,0.0
1153,80.6
1154,60.8
1155,80.4778609722288
1156,60.922139027771198
1157,80.16701719519002
1158,80.16701719519002
1159,0.0
1160,0.0
1165,0.0
1166,0.0
1167,80.16701719519002
1168,0.0
2522,0.0
2520,0.00000751885740763982
2521,48757.60182897971
2,1, 7, 1, 1, 2,35.00,40.00,Monday
7,28.533333333333336
1151,0.0
1152,0.0
1153,80.6
1154,60.8
1155,80.48122180258557
1156,60.91877819741444
1157,80.149863387625
1158,80.149863387625
1159,0.0
1160,0.0
1165,0.0
1166,0.0
1167,80.149863387625
1168,0.0
2522,0.0
2520,0.000007533046723626176
2521,48755.51790767631
2,1, 7, 1, 1, 2,40.00,45.00,Monday
7,28.425000000000006
1151,0.0
1152,0.0
1153,80.6
1154,60.8
1155,80.47849677561577
1156,60.921503224384249
1157,80.13140917014809
1158,80.13140917014809
1159,0.0
1160,0.0
1165,0.0
1166,0.0
1167,80.13140917014809
1168,0.0
2522,0.0
2520,0.0000075476112372066268
2521,48753.43158377159
2,1, 7, 1, 1, 2,45.00,50.00,Monday
7,28.316666666666668
1151,0.0
1152,0.0
1153,80.6
1154,60.8
1155,80.48014470104346
1156,60.91985529895655
1157,80.11180363210676
1158,80.11180363210676
1159,0.0
1160,0.0
1165,0.0
1166,0.0
1167,80.11180363210676
1168,0.0
2522,0.0
2520,0.000007562501990751146
2521,48751.34283452716
2,1, 7, 1, 1, 2,50.00,55.00,Monday
7,28.208333333333337
1151,0.0
1152,0.0
1153,80.6
1154,60.8
1155,80.47522506980829
1156,60.92477493019173
1157,80.09111941506711
1158,80.09111941506711
1159,0.0
1160,0.0
1165,0.0
1166,0.0
1167,80.09111941506711
1168,0.0
2522,0.0
2520,0.000007565666522293723
2521,48749.25172027247
2,1, 7, 1, 1, 2,55.00,60.00,Monday
7,28.1
1151,0.0
1152,0.0
1153,80.6
1154,60.8
1155,80.48211994690453
1156,60.91788005309547
1157,80.0694672969615
1158,80.0694672969615
1159,0.0
1160,0.0
1165,0.0
1166,0.0
1167,80.0694672969615
1168,0.0
2522,0.0
2520,0.000007540598072507796
2521,48747.158248332635
2,1, 7, 1, 1, 3, 0.00, 5.00,Monday
7,28.0
1151,0.0
1152,0.0
1153,80.6
1154,60.8
1155,80.4771598791493
1156,60.92284012085069
1157,80.04689870915942
1158,80.04689870915942
1159,0.0
1160,0.0
1165,0.0
1166,0.0
1167,80.04689870915942
1168,0.0
2522,0.0
2520,0.000007504693867440522
2521,48745.181700034525
2,1, 7, 1, 1, 3, 5.00,10.00,Monday
7,27.9
1151,0.0
1152,0.0
1153,80.6
1154,60.8
1155,80.47893500354566
1156,60.92106499645434
1157,80.02369184019315
1158,80.02369184019315
1159,0.0
1160,0.0
1165,0.0
1166,0.0
1167,80.02369184019315
1168,0.0
2522,0.0
2520,0.0000074776901930893368
2521,48743.20452007303
2,1, 7, 1, 1, 3,10.00,15.00,Monday
7,27.800000000000006
1151,0.0
1152,0.0
1153,80.6
1154,60.8
1155,80.47723742904718
1156,60.922762570952837
1157,79.99982632566608
1158,79.99982632566608
1159,0.0
1160,0.0
1165,0.0
1166,0.0
1167,79.99982632566608
1168,0.0
2522,0.0
2520,0.000007457919066937117
2521,48741.2263185582
2,1, 7, 1, 1, 3,15.00,20.00,Monday
7,27.700000000000004
1151,0.0
1152,0.0
1153,80.6
1154,60.8
1155,80.47802168264451
1156,60.92197831735549
1157,79.97533280394447
1158,79.97533280394447
1159,0.0
1160,0.0
1165,0.0
1166,0.0
1167,79.97533280394447
1168,0.0
2522,0.0
2520,0.000007444069180221653
2521,48739.24681123873
2,1, 7, 1, 1, 3,20.00,25.00,Monday
7,27.6
1151,0.0
1152,0.0
1153,80.6
1154,60.8
1155,80.47837275618883
1156,60.92162724381118
1157,79.9502237645303
1158,79.9502237645303
1159,0.0
1160,0.0
1165,0.0
1166,0.0
1167,79.9502237645303
1168,0.0
2522,0.0
2520,0.0000074350973001808488
2521,48737.26610430053
2,1, 7, 1, 1, 3,25.00,30.00,Monday
7,27.5
1151,0.0
1152,0.0
1153,80.6
1154,60.8
1155,80.47702397182559
1156,60.922976028174428
1157,79.92454258031796
1158,79.92454258031796
1159,0.0
1160,0.0
1165,0.0
1166,0.0
1167,79.92454258031796
1168,0.0
2522,0.0
2520,0.000007430165136254941
2521,48735.28413264666
2,1, 7, 1, 1, 3,30.00,35.00,Monday
7,27.4
1151,0.0
1152,0.0
1153,80.6
1154,60.8
1155,80.48193640000128
1156,60.918063599998749
1157,79.89802163391716
1158,79.89802163391716
1159,0.0
1160,0.0
1165,0.0
1166,0.0
1167,79.89802163391716
1168,0.0
2522,0.0
2520,0.000007428593402677842
2521,48733.29268755382
2,1, 7, 1, 1, 3,35.00,40.00,Monday
7,27.299999999999998
1151,0.0
1152,0.0
1153,80.6
1154,60.8
1155,80.47830198219694
1156,60.92169801780305
1157,79.87126929074788
1158,79.87126929074788
1159,0.0
1160,0.0
1165,0.0
1166,0.0
1167,79.87126929074788
1168,0.0
2522,0.0
2520,0.000007429827765846524
2521,48731.30500808267
2,1, 7, 1, 1, 3,40.00,45.00,Monday
7,27.199999999999997
1151,0.0
1152,0.0
1153,80.6
1154,60.8
1155,80.47552558900699
1156,60.924474410993
1157,79.84404182053945
1158,79.84404182053945
1159,0.0
1160,0.0
1165,0.0
1166,0.0
1167,79.84404182053945
1168,0.0
2522,0.0
2520,0.00000743341317831354
2521,48729.31828779974
2,1, 7, 1, 1, 3,45.00,50.00,Monday
7,27.1
1151,0.0
1152,0.0
1153,80.6
1154,60.8
1155,80.48102275676001
1156,60.91897724323998
1157,79.8163355887529
1158,79.8163355887529
1159,0.0
1160,0.0
1165,0.0
1166,0.0
1167,79.8163355887529
1168,0.0
2522,0.0
2520,0.000007438974243804982
2521,48727.3302384074
2,1, 7, 1, 1, 3,50.00,55.00,Monday
7,27.0
1151,0.0
1152,0.0
1153,80.6
1154,60.8
1155,80.47642692064599
1156,60.923573079354017
1157,79.7881704238029
1158,79.7881704238029
1159,0.0
1160,0.0
1165,0.0
1166,0.0
1167,79.7881704238029
1168,0.0
2522,0.0
2520,0.000007446199994796538
2521,48725.340984717644
2,1, 7, 1, 1, 3,55.00,60.00,Monday
7,26.9
1151,0.0
1152,0.0
1153,80.6
1154,60.8
1155,80.475413939985
1156,60.92458606001498
1157,79.75958674898533
1158,79.75958674898533
1159,0.0
1160,0.0
1165,0.0
1166,0.0
1167,79.75958674898533
1168,0.0
2522,0.0
2520,0.000007454831950069964
2521,48723.35037224066
2,1, 7, 1, 1, 4, 0.00, 5.00,Monday
7,26.791666666666666
1151,0.0
1152,0.0
1153,80.6
1154,60.8
1155,80.480221760566
1156,60.91977823943401
1157,79.73059419981252
1158,79.73059419981252
1159,0.0
1160,0.0
1165,0.0
1166,0.0
1167,79.73059419981252
1168,0.0
2522,0.0
2520,0.000007464654646098689
2521,49015.25102323057
2,1, 7, 1, 1, 4, 5.00,10.00,Monday
7,26.683333333333335
1151,0.0
1152,0.0
1153,80.6
1154,60.8
1155,80.47476360339187
1156,60.92523639660813
1157,79.70105530910476
1158,79.70105530910476
1159,0.0
1160,0.0
1165,0.0
1166,0.0
1167,79.70105530910476
1168,0.0
2522,0.0
2520,0.000007475488059377928
2521,49012.63693897134
2,1, 7, 1, 1, 4,10.00,15.00,Monday
7,26.574999999999997
1151,0.0
1152,0.0
1153,80.6
1154,60.8
1155,80.48203140267508
1156,60.91796859732493
1157,79.67105173190486
1158,79.67105173190486
1159,0.0
1160,0.0
1165,0.0
1166,0.0
1167,79.67105173190486
1168,0.0
2522,0.0
2520,0.000007487181492000323
2521,49010.020164416346
2,1, 7, 1, 1, 4,15.00,20.00,Monday
7,26.46666666666667
1151,0.0
1152,0.0
1153,80.6
1154,60.8
1155,80.48147258220011
1156,60.91852741779989
1157,79.64049100016622
1158,79.64049100016622
1159,0.0
1160,0.0
1165,0.0
1166,0.0
1167,79.64049100016622
1168,0.0
2522,0.0
2520,0.000007499608602281532
2521,49007.39718378556
2,1, 7, 1, 1, 4,20.00,25.00,Monday
7,26.358333333333336
1151,0.0
1152,0.0
1153,80.6
1154,60.8
1155,80.47539910427358
1156,60.92460089572644
1157,79.60965976853153
1158,79.60965976853153
1159,0.0
1160,0.0
1165,0.0
1166,0.0
1167,79.60965976853153
1168,0.0
2522,0.0
2520,0.000007512663340617437
2521,49004.775022527094
2,1, 7, 1, 1, 4,25.00,30.00,Monday
7,26.25
1151,0.0
1152,0.0
1153,80.6
1154,60.8
1155,80.47551380967205
1156,60.92448619032793
1157,79.57836837280343
1158,79.57836837280343
1159,0.0
1160,0.0
1165,0.0
1166,0.0
1167,79.57836837280343
1168,0.0
2522,0.0
2520,0.000007526256607604784
2521,49002.14808966582
2,1, 7, 1, 1, 4,30.00,35.00,Monday
7,26.141666666666667
1151,0.0
1152,0.0
1153,80.6
1154,60.8
1155,80.47522670577459
1156,60.92477329422542
1157,79.54686605692473
1158,79.54686605692473
1159,0.0
1160,0.0
1165,0.0
1166,0.0
1167,79.54686605692473
1168,0.0
2522,0.0
2520,0.000007540313493223298
2521,48999.52219604491
2,1, 7, 1, 1, 4,35.00,40.00,Monday
7,26.03333333333333
1151,0.0
1152,0.0
1153,80.6
1154,60.8
1155,80.47658979018704
1156,60.923410209812967
1157,79.51496427199628
1158,79.51496427199628
1159,0.0
1160,0.0
1165,0.0
1166,0.0
1167,79.51496427199628
1168,0.0
2522,0.0
2520,0.00000755477098693857
2521,48996.891840540084
2,1, 7, 1, 1, 4,40.00,45.00,Monday
7,25.925000000000006
1151,0.0
1152,0.0
1153,80.6
1154,60.8
1155,80.48203047270926
1156,60.91796952729075
1157,79.48274296991198
1158,79.48274296991198
1159,0.0
1160,0.0
1165,0.0
1166,0.0
1167,79.48274296991198
1168,0.0
2522,0.0
2520,0.000007569576071957442
2521,48994.25914169475
2,1, 7, 1, 1, 4,45.00,50.00,Monday
7,25.81666666666667
1151,0.0
1152,0.0
1153,80.6
1154,60.8
1155,80.48189228738088
1156,60.91810771261913
1157,79.45024464372009
1158,79.45024464372009
1159,0.0
1160,0.0
1165,0.0
1166,0.0
1167,79.45024464372009
1168,0.0
2522,0.0
2520,0.000007560233705448761
2521,48991.625304869915
2,1, 7, 1, 1, 4,50.00,55.00,Monday
7,25.708333333333337
1151,0.0
1152,0.0
1153,80.6
1154,60.8
1155,80.47929716859659
1156,60.9207028314034
1157,79.41749166397537
1158,79.41749166397537
1159,0.0
1160,0.0
1165,0.0
1166,0.0
1167,79.41749166397537
1168,0.0
2522,0.0
2520,0.0000075256005751986919
2521,48988.990439597335
2,1, 7, 1, 1, 4,55.00,60.00,Monday
7,25.6
1151,0.0
1152,0.0
1153,80.6
1154,60.8
1155,80.4747955477585
1156,60.925204452241498
1157,79.38449617022275
1158,79.38449617022275
1159,0.0
1160,0.0
1165,0.0
1166,0.0
1167,79.38449617022275
1168,0.0
2522,0.0
2520,0.000007493380639168705
2521,48986.35434443264
2,1, 7, 1, 1, 5, 0.00, 5.00,Monday
7,25.5
1151,0.0
1152,0.0
1153,80.6
1154,60.8
1155,80.47794663554487
1156,60.92205336445514
1157,79.35127213445276
1158,79.35127213445276
1159,0.0
1160,0.0
1165,0.0
1166,0.0
1167,79.35127213445276
1168,0.0
2522,0.0
2520,0.000007469363850139949
2521,48965.44548367855
2,1, 7, 1, 1, 5, 5.00,10.00,Monday
7,25.400000000000003
1151,0.0
1152,0.0
1153,80.6
1154,60.8
1155,80.47392100765572
1156,60.926078992344297
1157,79.31813692640299
1158,79.31813692640299
1159,0.0
1160,0.0
1165,0.0
1166,0.0
1167,79.31813692640299
1168,0.0
2522,0.0
2520,0.000007452033391555117
2521,48962.99963751859
2,1, 7, 1, 1, 5,10.00,15.00,Monday
7,25.300000000000006
1151,0.0
1152,0.0
1153,80.6
1154,60.8
1155,80.47579517711043
1156,60.92420482288958
1157,79.28500731073054
1158,79.28500731073054
1159,0.0
1160,0.0
1165,0.0
1166,0.0
1167,79.28500731073054
1168,0.0
2522,0.0
2520,0.000007440190980180563
2521,48960.554467917056
2,1, 7, 1, 1, 5,15.00,20.00,Monday
7,25.200000000000004
1151,0.0
1152,0.0
1153,80.6
1154,60.8
1155,80.48012036152001
1156,60.91987963847999
1157,79.2518305057937
1158,79.2518305057937
1159,0.0
1160,0.0
1165,0.0
1166,0.0
1167,79.2518305057937
1168,0.0
2522,0.0
2520,0.000007432879399493878
2521,48958.109397277665
2,1, 7, 1, 1, 5,20.00,25.00,Monday
7,25.099999999999999
1151,0.0
1152,0.0
1153,80.6
1154,60.8
1155,80.4800192218421
1156,60.9199807781579
1157,79.2185534391333
1158,79.2185534391333
1159,0.0
1160,0.0
1165,0.0
1166,0.0
1167,79.2185534391333
1168,0.0
2522,0.0
2520,0.000007429326832065803
2521,48955.66445583781
2,1, 7, 1, 1, 5,25.00,30.00,Monday
7,25.0
1151,0.0
1152,0.0
1153,80.6
1154,60.8
1155,80.47488296192229
1156,60.9251170380777
1157,79.18516841423697
1158,79.18516841423697
1159,0.0
1160,0.0
1165,0.0
1166,0.0
1167,79.18516841423697
1168,0.0
2522,0.0
2520,0.000007428906050646229
2521,48953.21936698455
2,1, 7, 1, 1, 5,30.00,35.00,Monday
7,24.9
1151,0.0
1152,0.0
1153,80.6
1154,60.8
1155,80.47550283001769
1156,60.924497169982327
1157,79.15167619519562
1158,79.15167619519562
1159,0.0
1160,0.0
1165,0.0
1166,0.0
1167,79.15167619519562
1168,0.0
2522,0.0
2520,0.000007431103964387451
2521,48950.77429402084
2,1, 7, 1, 1, 5,35.00,40.00,Monday
7,24.8
1151,0.0
1152,0.0
1153,80.6
1154,60.8
1155,80.47665657495863
1156,60.923343425041377
1157,79.11806990353793
1158,79.11806990353793
1159,0.0
1160,0.0
1165,0.0
1166,0.0
1167,79.11806990353793
1168,0.0
2522,0.0
2520,0.000007435498527688921
2521,48948.32903983414
2,1, 7, 1, 1, 5,40.00,45.00,Monday
7,24.699999999999997
1151,0.0
1152,0.0
1153,80.6
1154,60.8
1155,80.4786526240681
1156,60.92134737593191
1157,79.08435554082573
1158,79.08435554082573
1159,0.0
1160,0.0
1165,0.0
1166,0.0
1167,79.08435554082573
1168,0.0
2522,0.0
2520,0.000007441740980254563
2521,48945.883799052775
2,1, 7, 1, 1, 5,45.00,50.00,Monday
7,24.599999999999999
1151,0.0
1152,0.0
1153,80.6
1154,60.8
1155,80.48015282669326
1156,60.91984717330675
1157,79.05053117710389
1158,79.05053117710389
1159,0.0
1160,0.0
1165,0.0
1166,0.0
1167,79.05053117710389
1168,0.0
2522,0.0
2520,0.000007449542012421472
2521,48943.43840246015
2,1, 7, 1, 1, 5,50.00,55.00,Monday
7,24.499999999999998
1151,0.0
1152,0.0
1153,80.6
1154,60.8
1155,80.47686624876025
1156,60.923133751239749
1157,79.01660304185931
1158,79.01660304185931
1159,0.0
1160,0.0
1165,0.0
1166,0.0
1167,79.01660304185931
1168,0.0
2522,0.0
2520,0.000007458660865213766
2521,48940.99304804474
2,1, 7, 1, 1, 5,55.00,60.00,Monday
7,24.4
1151,0.0
1152,0.0
1153,80.6
1154,60.8
1155,80.4733054051033
1156,60.9266945948967
1157,78.9825699491058
1158,78.9825699491058
1159,0.0
1160,0.0
1165,0.0
1166,0.0
1167,78.9825699491058
1168,0.0
2522,0.0
2520,0.000007468896655661805
2521,48938.54757968468
2,1, 7, 1, 1, 6, 0.00, 5.00,Monday
7,24.30833333333333
1151,0.0
1152,0.0
1153,80.6
1154,60.8
1155,80.47685752296411
1156,60.92314247703587
1157,78.9484398147627
1158,78.9484398147627
1159,0.0
1160,0.0
1165,0.0
1166,0.0
1167,78.9484398147627
1168,0.0
2522,0.0
2520,30404.689312578746
2521,79903.79383934348
2,1, 7, 1, 1, 6, 5.00,10.00,Monday
7,24.216666666666666
1151,11389.12572875003
1152,0.0
1153,80.6
1154,60.8
1155,80.47909388444208
1156,60.92090611555793
1157,77.96521858051315
1158,77.96521858051315
1159,1.0
1160,0.0
1165,672.0
1166,26812.0
1167,77.96521858051315
1168,0.0
2522,0.0
2520,30259.626715738366
2521,79727.68730509894
2,1, 7, 1, 1, 6,10.00,15.00,Monday
7,24.124999999999998
1151,11302.742416669871
1152,0.0
1153,80.6
1154,60.8
1155,80.47520544581517
1156,60.92479455418484
1157,77.03130140815407
1158,77.03130140815407
1159,1.0
1160,0.0
1165,672.0
1166,26812.0
1167,77.03130140815407
1168,0.0
2522,0.0
2520,30141.455732922972
2521,79563.3505473106
2,1, 7, 1, 1, 6,15.00,20.00,Monday
7,24.033333333333336
1151,11243.65692525016
1152,0.0
1153,80.6
1154,60.8
1155,80.47861609453389
1156,60.921383905466118
1157,76.44944223232221
1158,76.44944223232221
1159,1.0
1160,0.0
1165,672.0
1166,26812.0
1167,76.44944223232221
1168,0.0
2522,0.0
2520,30022.53931628947
2521,79424.24499689727
2,1, 7, 1, 1, 6,20.00,25.00,Monday
7,23.941666666666664
1151,22368.39743435793
1152,0.0
1153,80.6
1154,60.8
1155,80.47483912692769
1156,60.925160873072318
1157,76.01026088436365
1158,76.01026088436365
1159,1.0
1160,0.0
1165,672.0
1166,26812.0
1167,76.01026088436365
1168,0.0
2522,0.0
2520,29902.835334762665
2521,70717.76933470836
2,1, 7, 1, 1, 6,25.00,30.00,Monday
7,23.85
1151,22248.69345281735
1152,0.0
1153,80.6
1154,60.8
1155,80.48014675801801
1156,60.919853241982
1157,75.78544551438282
1158,75.78544551438282
1159,1.0
1160,0.0
1165,672.0
1166,26812.0
1167,75.78544551438282
1168,0.0
2522,0.0
2520,29782.358857882577
2521,70589.46675149967
2,1, 7, 1, 1, 6,30.00,35.00,Monday
7,23.758333333333334
1151,22128.216975923056
1152,0.0
1153,80.6
1154,60.8
1155,80.4782088159554
1156,60.92179118404461
1157,75.62454314719591
1158,75.62454314719591
1159,1.0
1160,0.0
1165,672.0
1166,26812.0
1167,75.62454314719591
1168,0.0
2522,0.0
2520,29661.111344750523
2521,70462.88865093957
2,1, 7, 1, 1, 6,35.00,40.00,Monday
7,23.666666666666669
1151,22006.9694627764
1152,0.0
1153,80.6
1154,60.8
1155,80.48554260326975
1156,60.914457396730259
1157,75.50017042854769
1158,75.50017042854769
1159,1.0
1160,0.0
1165,672.0
1166,26812.0
1167,75.50017042854769
1168,0.0
2522,0.0
2520,29539.093053021643
2521,70336.98640633056
2,1, 7, 1, 1, 6,40.00,45.00,Monday
7,23.575000000000004
1151,21884.951171038214
1152,0.0
1153,80.6
1154,60.8
1155,80.48535851672676
1156,60.914641483273218
1157,75.4007807731937
1158,75.4007807731937
1159,1.0
1160,0.0
1165,672.0
1166,26812.0
1167,75.4007807731937
1168,0.0
2522,0.0
2520,29416.29411065743
2521,70211.19364119237
2,1, 7, 1, 1, 6,45.00,50.00,Monday
7,23.483333333333336
1151,21762.152228694384
1152,0.0
1153,80.6
1154,60.8
1155,80.48538287901441
1156,60.914617120985578
1157,75.3171854275636
1158,75.3171854275636
1159,1.0
1160,0.0
1165,672.0
1166,26812.0
1167,75.3171854275636
1168,0.0
2522,0.0
2520,29292.72537367883
2521,70085.15797029826
2,1, 7, 1, 1, 6,50.00,55.00,Monday
7,23.39166666666667
1151,21638.58349175382
1152,0.0
1153,80.6
1154,60.8
1155,80.48558873590676
1156,60.91441126409324
1157,75.24602157544902
1158,75.24602157544902
1159,1.0
1160,0.0
1165,672.0
1166,26812.0
1167,75.24602157544902
1168,0.0
2522,0.0
2520,29168.373838142747
2521,69958.66240227668
2,1, 7, 1, 1, 6,55.00,60.00,Monday
7,23.3
1151,21514.23195624647
1152,0.0
1153,80.6
1154,60.8
1155,80.48659733574877
1156,60.91340266425123
1157,75.18341213225063
1158,75.18341213225063
1159,1.0
1160,0.0
1165,672.0
1166,26812.0
1167,75.18341213225063
1168,0.0
2522,0.0
2520,29043.244534385012
2521,69831.56206757351
2,1, 7, 1, 1, 7, 0.00, 5.00,Monday
7,23.533333333333336
1151,21389.102652509908
1152,0.0
1153,80.6
1154,60.8
1155,80.48420249690202
1156,60.91579750309799
1157,75.12752528346783
1158,75.12752528346783
1159,1.0
1160,0.0
1165,672.0
1166,26812.0
1167,75.12752528346783
1168,0.0
2522,0.0
2520,35292.51466719614
2521,75991.47385150402
2,1, 7, 1, 1, 7, 5.00,10.00,Monday
7,23.766666666666667
1151,12529.899237077665
1152,0.0
1153,76.56119924319605
1154,67.53133459467327
1155,76.44506611766326
1156,67.64746772020604
1157,74.84521182190491
1158,74.84521182190491
1159,1.0
1160,0.0
1165,672.0
1166,26812.0
1167,74.84521182190491
1168,0.0
2522,0.0
2520,33762.1671879804
2521,74458.67604144925
2,1, 7, 1, 1, 7,10.00,15.00,Monday
7,24.0
1151,25940.404370016062
1152,113.53302336009782
1153,76.56119924319605
1154,67.53133459467327
1155,76.44680898989958
1156,67.64572484796972
1157,74.77463326857614
1158,74.77463326857614
1159,1.0
1160,1.0
1165,672.0
1166,26812.0
1167,74.77463326857614
1168,0.0
2522,0.0
2520,34387.58354150324
2521,75084.66643446943
2,1, 7, 1, 1, 7,15.00,20.00,Monday
7,24.233333333333336
1151,26594.945143389017
1152,77.320373632375
1153,76.56119924319605
1154,67.53133459467327
1155,76.45014082431874
1156,67.64239301355056
1157,74.7379984793913
1158,74.7379984793913
1159,1.0
1160,1.0
1165,672.0
1166,26812.0
1167,74.7379984793913
1168,0.0
2522,0.0
2520,35059.9754445544
2521,75760.475185722
2,1, 7, 1, 1, 7,20.00,25.00,Monday
7,24.46666666666667
1151,27333.569797109652
1152,0.0
1153,76.56119924319605
1154,67.53133459467327
1155,76.44773193302965
1156,67.64480190483966
1157,74.70356846763464
1158,74.70356846763464
1159,1.0
1160,0.0
1165,672.0
1166,26812.0
1167,74.70356846763464
1168,0.0
2522,0.0
2520,35799.10054350884
2521,76503.57231474969
2,1, 7, 1, 1, 7,25.00,30.00,Monday
7,24.700000000000004
1151,28063.04985948638
1152,0.0
1153,76.56119924319605
1154,67.53133459467327
1155,76.44805594073252
1156,67.64447789713678
1157,74.67225076214507
1158,74.67225076214507
1159,1.0
1160,0.0
1165,672.0
1166,26812.0
1167,74.67225076214507
1168,0.0
2522,0.0
2520,36556.849352576784
2521,77265.88219898676
2,1, 7, 1, 1, 7,30.00,35.00,Monday
7,24.933333333333335
1151,28809.398114059324
1152,0.0
1153,76.56119924319605
1154,67.53133459467327
1155,76.44925588042327
1156,67.64327795744606
1157,74.64318370383475
1158,74.64318370383475
1159,1.0
1160,0.0
1165,672.0
1166,26812.0
1167,74.64318370383475
1168,0.0
2522,0.0
2520,37282.01977465716
2521,77995.80734586757
2,1, 7, 1, 1, 7,35.00,40.00,Monday
7,25.166666666666666
1151,29527.383585323703
1152,0.0
1153,76.56119924319605
1154,67.53133459467327
1155,76.45305428024943
1156,67.6394795576199
1157,74.61633472792374
1158,74.61633472792374
1159,1.0
1160,0.0
1165,672.0
1166,26812.0
1167,74.61633472792374
1168,0.0
2522,0.0
2520,38038.124350166705
2521,78756.67369413763
2,1, 7, 1, 1, 7,40.00,45.00,Monday
7,25.400000000000003
1151,30272.993297845984
1152,0.0
1153,76.56119924319605
1154,67.53133459467327
1155,76.44993180166921
1156,67.64260203620009
1157,74.58974058318367
1158,74.58974058318367
1159,1.0
1160,0.0
1165,672.0
1166,26812.0
1167,74.58974058318367
1168,0.0
2522,0.0
2520,38769.908316657384
2521,79493.23426112981
2,1, 7, 1, 1, 7,45.00,50.00,Monday
7,25.633333333333338
1151,30997.870076169267
1152,0.0
1153,76.56119924319605
1154,67.53133459467327
1155,76.45182802063082
1156,67.64070581723849
1157,74.56553088437812
1158,74.56553088437812
1159,1.0
1160,0.0
1165,672.0
1166,26812.0
1167,74.56553088437812
1168,0.0
2522,0.0
2520,39517.628282828715
2521,80245.7158675441
2,1, 7, 1, 1, 7,50.00,55.00,Monday
7,25.866666666666668
1151,31736.8488892364
1152,0.0
1153,76.56119924319605
1154,67.53133459467327
1155,76.45283429595172
1156,67.6396995419176
1157,74.54293183225912
1158,74.54293183225912
1159,1.0
1160,0.0
1165,672.0
1166,26812.0
1167,74.54293183225912
1168,0.0
2522,0.0
2520,40262.51124040387
2521,80995.37772808263
2,1, 7, 1, 1, 7,55.00,60.00,Monday
7,26.1
1151,32473.669814817633
1152,0.0
1153,76.56119924319605
1154,67.53133459467327
1155,76.45581981736479
1156,67.63671402050454
1157,74.52235183441656
1158,74.52235183441656
1159,1.0
1160,0.0
1165,672.0
1166,26812.0
1167,74.52235183441656
1168,0.0
2522,0.0
2520,41005.685062618366
2521,81743.33967199343
2,1, 7, 1, 1, 8, 0.00, 5.00,Monday
7,26.375
1151,33209.17156892958
1152,0.0
1153,76.56119924319605
1154,67.53133459467327
1155,76.46110952522335
1156,67.63142431264595
1157,74.50403088075994
1158,74.50403088075994
1159,1.0
1160,0.0
1165,672.0
1166,26812.0
1167,74.50403088075994
1168,0.0
2522,0.0
2520,45038.19130455989
2521,134001.25708472584
2,1, 7, 1, 1, 8, 5.00,10.00,Monday
7,26.650000000000003
1151,18620.509964439603
1152,0.0
1153,76.56119924319605
1154,67.53133459467327
1155,76.45763250075223
1156,67.63490133711709
1157,74.76686725489796
1158,74.76686725489796
1159,1.0
1160,0.0
1165,672.0
1166,26812.0
1167,74.76686725489796
1168,216.58844050947497
2522,0.0
2520,48189.184001915695
2521,137165.98596032128
2,1, 7, 1, 1, 8,10.00,15.00,Monday
7,26.925000000000006
1151,39424.02419058898
1152,0.0
1153,76.56119924319605
1154,67.53133459467327
1155,76.4568831851249
1156,67.6356506527444
1157,74.90031680284237
1158,74.90031680284237
1159,1.0
1160,0.0
1165,672.0
1166,26812.0
1167,74.90031680284237
1168,216.58844050947497
2522,0.0
2520,49474.395813872055
2521,138460.5403975943
2,1, 7, 1, 1, 8,15.00,20.00,Monday
7,27.200000000000004
1151,40623.882214441684
1152,0.0
1153,76.56119924319605
1154,67.53133459467327
1155,76.46212549189322
1156,67.6304083459761
1157,74.93717430798836
1158,74.93717430798836
1159,1.0
1160,0.0
1165,672.0
1166,26812.0
1167,74.93717430798836
1168,216.58844050947497
2522,0.0
2520,50701.14487775227
2521,139694.711939204
2,1, 7, 1, 1, 8,20.00,25.00,Monday
7,27.475
1151,41779.8829044424
1152,0.0
1153,76.56119924319605
1154,67.53133459467327
1155,76.46013400711252
1156,67.63239983075678
1157,74.95773845233257